<?xml version="1.0"?>
<VTKFile type="UnstructuredGrid"  version="0.1"  >
<UnstructuredGrid>
<Piece  NumberOfPoints="51" NumberOfCells="50">
<Points>
<DataArray  type="Float32"  NumberOfComponents="3"  format="ascii">0 0 0  0.02 0 0  0.04 0 0  0.06 0 0  0.08 0 0  0.1 0 0  0.12 0 0  0.14 0 0  0.16 0 0  0.18 0 0  0.2 0 0  0.22 0 0  0.24 0 0  0.26 0 0  0.28 0 0  0.3 0 0  0.32 0 0  0.34 0 0  0.36 0 0  0.38 0 0  0.4 0 0  0.42 0 0  0.44 0 0  0.46 0 0  0.48 0 0  0.5 0 0  0.52 0 0  0.54 0 0  0.56 0 0  0.58 0 0  0.6 0 0  0.62 0 0  0.64 0 0  0.66 0 0  0.68 0 0  0.7 0 0  0.72 0 0  0.74 0 0  0.76 0 0  0.78 0 0  0.8 0 0  0.82 0 0  0.84 0 0  0.86 0 0  0.88 0 0  0.9 0 0  0.92 0 0  0.94 0 0  0.96 0 0  0.98 0 0  1 0 0  </DataArray>
</Points>
<Cells>
<DataArray  type="UInt32"  Name="connectivity"  format="ascii">0 1  1 2  2 3  3 4  4 5  5 6  6 7  7 8  8 9  9 10  10 11  11 12  12 13  13 14  14 15  15 16  16 17  17 18  18 19  19 20  20 21  21 22  22 23  23 24  24 25  25 26  26 27  27 28  28 29  29 30  30 31  31 32  32 33  33 34  34 35  35 36  36 37  37 38  38 39  39 40  40 41  41 42  42 43  43 44  44 45  45 46  46 47  47 48  48 49  49 50  </DataArray>
<DataArray  type="UInt32"  Name="offsets"  format="ascii">2 4 6 8 10 12 14 16 18 20 22 24 26 28 30 32 34 36 38 40 42 44 46 48 50 52 54 56 58 60 62 64 66 68 70 72 74 76 78 80 82 84 86 88 90 92 94 96 98 100 </DataArray>
<DataArray  type="UInt8"  Name="types"  format="ascii">3 3 3 3 3 3 3 3 3 3 3 3 3 3 3 3 3 3 3 3 3 3 3 3 3 3 3 3 3 3 3 3 3 3 3 3 3 3 3 3 3 3 3 3 3 3 3 3 3 3 </DataArray>
</Cells>
<PointData  Scalars="u"> 
<DataArray  type="Float32"  Name="u"  format="ascii">0.000000e+000  9.800000e-003  1.920000e-002  2.820000e-002  3.680000e-002  4.500000e-002  5.280000e-002  6.020000e-002  6.720000e-002  7.380000e-002  8.000000e-002  8.580000e-002  9.120000e-002  9.620000e-002  1.008000e-001  1.050000e-001  1.088000e-001  1.122000e-001  1.152000e-001  1.178000e-001  1.200000e-001  1.218000e-001  1.232000e-001  1.242000e-001  1.248000e-001  1.250000e-001  1.248000e-001  1.242000e-001  1.232000e-001  1.218000e-001  1.200000e-001  1.178000e-001  1.152000e-001  1.122000e-001  1.088000e-001  1.050000e-001  1.008000e-001  9.620000e-002  9.120000e-002  8.580000e-002  8.000000e-002  7.380000e-002  6.720000e-002  6.020000e-002  5.280000e-002  4.500000e-002  3.680000e-002  2.820000e-002  1.920000e-002  9.800000e-003  0.000000e+000  </DataArray> 
</PointData> 
</Piece>
</UnstructuredGrid>
</VTKFile>