<?xml version="1.0"?>
<VTKFile type="UnstructuredGrid"  version="0.1"  >
<UnstructuredGrid>
<Piece  NumberOfPoints="1861" NumberOfCells="3600">
<Points>
<DataArray  type="Float32"  NumberOfComponents="3"  format="ascii">-1 0 0  -0.999406 -0.0344623 0  -0.997459 -0.071247 0  -0.993884 -0.110432 0  -0.988372 -0.152057 0  -0.980581 -0.196116 0  -0.970143 -0.242536 0  -0.956674 -0.291162 0  -0.939793 -0.341743 0  -0.919145 -0.393919 0  -0.894427 -0.447214 0  -0.865426 -0.501036 0  -0.83205 -0.5547 0  -0.794358 -0.60745 0  -0.752577 -0.658505 0  -0.707107 -0.707107 0  -0.658505 -0.752577 0  -0.60745 -0.794358 0  -0.5547 -0.83205 0  -0.501036 -0.865426 0  -0.447214 -0.894427 0  -0.393919 -0.919145 0  -0.341743 -0.939793 0  -0.291162 -0.956674 0  -0.242536 -0.970143 0  -0.196116 -0.980581 0  -0.152057 -0.988372 0  -0.110432 -0.993884 0  -0.071247 -0.997459 0  -0.0344623 -0.999406 0  0 -1 0  -0.999406 0.0344623 0  -0.933333 0 0  -0.932694 -0.0345442 0  -0.930584 -0.0715834 0  -0.926685 -0.111202 0  -0.920634 -0.153439 0  -0.912031 -0.198268 0  -0.900446 -0.245576 0  -0.885438 -0.295146 0  -0.866578 -0.346631 0  -0.843489 -0.399547 0  -0.81588 -0.453267 0  -0.783599 -0.507035 0  -0.746667 -0.56 0  -0.70531 -0.611269 0  -0.659966 -0.659966 0  -0.611269 -0.70531 0  -0.56 -0.746667 0  -0.507035 -0.783599 0  -0.453267 -0.81588 0  -0.399547 -0.843489 0  -0.346631 -0.866578 0  -0.295146 -0.885438 0  -0.245576 -0.900446 0  -0.198268 -0.912031 0  -0.153439 -0.920634 0  -0.111202 -0.926685 0  -0.0715834 -0.930584 0  -0.0345442 -0.932694 0  0 -0.933333 0  0.0344623 -0.999406 0  -0.997459 0.071247 0  -0.932694 0.0345442 0  -0.866667 0 0  -0.865974 -0.034639 0  -0.863673 -0.0719727 0  -0.859387 -0.112094 0  -0.852687 -0.155034 0  -0.843099 -0.200738 0  -0.830116 -0.249035 0  -0.813231 -0.299611 0  -0.79197 -0.351987 0  -0.76595 -0.405503 0  -0.734932 -0.459332 0  -0.698884 -0.512515 0  -0.658022 -0.564019 0  -0.612826 -0.612826 0  -0.564019 -0.658022 0  -0.512515 -0.698884 0  -0.459332 -0.734932 0  -0.405503 -0.76595 0  -0.351987 -0.79197 0  -0.299611 -0.813231 0  -0.249035 -0.830116 0  -0.200738 -0.843099 0  -0.155034 -0.852687 0  -0.112094 -0.859387 0  -0.0719727 -0.863673 0  -0.034639 -0.865974 0  0 -0.866667 0  0.0345442 -0.932694 0  0.071247 -0.997459 0  -0.993884 0.110432 0  -0.930584 0.0715834 0  -0.865974 0.034639 0  -0.8 0 0  -0.799245 -0.0347498 0  -0.796715 -0.0724286 0  -0.79196 -0.113137 0  -0.784465 -0.156893 0  -0.77366 -0.203595 0  -0.758947 -0.252982 0  -0.739742 -0.3046 0  -0.715542 -0.357771 0  -0.685994 -0.411597 0  -0.650987 -0.464991 0  -0.610709 -0.516754 0  -0.565685 -0.565685 0  -0.516754 -0.610709 0  -0.464991 -0.650987 0  -0.411597 -0.685994 0  -0.357771 -0.715542 0  -0.3046 -0.739742 0  -0.252982 -0.758947 0  -0.203595 -0.77366 0  -0.156893 -0.784465 0  -0.113137 -0.79196 0  -0.0724286 -0.796715 0  -0.0347498 -0.799245 0  0 -0.8 0  0.034639 -0.865974 0  0.0715834 -0.930584 0  0.110432 -0.993884 0  -0.988372 0.152057 0  -0.926685 0.111202 0  -0.863673 0.0719727 0  -0.799245 0.0347498 0  -0.733333 0 0  -0.732503 -0.0348811 0  -0.729694 -0.0729694 0  -0.72436 -0.114373 0  -0.715871 -0.159082 0  -0.703535 -0.206922 0  -0.686641 -0.257491 0  -0.664534 -0.310116 0  -0.636712 -0.363835 0  -0.602941 -0.417421 0  -0.563362 -0.469469 0  -0.518545 -0.518545 0  -0.469469 -0.563362 0  -0.417421 -0.602941 0  -0.363835 -0.636712 0  -0.310116 -0.664534 0  -0.257491 -0.686641 0  -0.206922 -0.703535 0  -0.159082 -0.715871 0  -0.114373 -0.72436 0  -0.0729694 -0.729694 0  -0.0348811 -0.732503 0  0 -0.733333 0  0.0347498 -0.799245 0  0.0719727 -0.863673 0  0.111202 -0.926685 0  0.152057 -0.988372 0  -0.980581 0.196116 0  -0.920634 0.153439 0  -0.859387 0.112094 0  -0.796715 0.0724286 0  -0.732503 0.0348811 0  -0.666667 0 0  -0.665745 -0.0350392 0  -0.662589 -0.073621 0  -0.656522 -0.115857 0  -0.646762 -0.16169 0  -0.632456 -0.210819 0  -0.612763 -0.262613 0  -0.586981 -0.316067 0  -0.5547 -0.3698 0  -0.515972 -0.422159 0  -0.471405 -0.471405 0  -0.422159 -0.515972 0  -0.3698 -0.5547 0  -0.316067 -0.586981 0  -0.262613 -0.612763 0  -0.210819 -0.632456 0  -0.16169 -0.646762 0  -0.115857 -0.656522 0  -0.073621 -0.662589 0  -0.0350392 -0.665745 0  0 -0.666667 0  0.0348811 -0.732503 0  0.0724286 -0.796715 0  0.112094 -0.859387 0  0.153439 -0.920634 0  0.196116 -0.980581 0  -0.970143 0.242536 0  -0.912031 0.198268 0  -0.852687 0.155034 0  -0.79196 0.113137 0  -0.729694 0.0729694 0  -0.665745 0.0350392 0  -0.6 0 0  -0.598965 -0.0352332 0  -0.595367 -0.0744208 0  -0.588348 -0.11767 0  -0.576914 -0.164833 0  -0.560007 -0.215387 0  -0.536656 -0.268328 0  -0.506197 -0.322125 0  -0.468521 -0.374817 0  -0.424264 -0.424264 0  -0.374817 -0.468521 0  -0.322125 -0.506197 0  -0.268328 -0.536656 0  -0.215387 -0.560007 0  -0.164833 -0.576914 0  -0.11767 -0.588348 0  -0.0744208 -0.595367 0  -0.0352332 -0.598965 0  5.55112e-017 -0.6 0  0.0350392 -0.665745 0  0.0729694 -0.729694 0  0.113137 -0.79196 0  0.155034 -0.852687 0  0.198268 -0.912031 0  0.242536 -0.970143 0  -0.956674 0.291162 0  -0.900446 0.245576 0  -0.843099 0.200738 0  -0.784465 0.156893 0  -0.72436 0.114373 0  -0.662589 0.073621 0  -0.598965 0.0352332 0  -0.533333 0 0  -0.532152 -0.0354768 0  -0.527973 -0.0754247 0  -0.519675 -0.119925 0  -0.505964 -0.168655 0  -0.485529 -0.220695 0  -0.45733 -0.274398 0  -0.420988 -0.327435 0  -0.377124 -0.377124 0  -0.327435 -0.420988 0  -0.274398 -0.45733 0  -0.220695 -0.485529 0  -0.168655 -0.505964 0  -0.119925 -0.519675 0  -0.0754247 -0.527973 0  -0.0354768 -0.532152 0  5.55112e-017 -0.533333 0  0.0352332 -0.598965 0  0.073621 -0.662589 0  0.114373 -0.72436 0  0.156893 -0.784465 0  0.200738 -0.843099 0  0.245576 -0.900446 0  0.291162 -0.956674 0  -0.939793 0.341743 0  -0.885438 0.295146 0  -0.830116 0.249035 0  -0.77366 0.203595 0  -0.715871 0.159082 0  -0.656522 0.115857 0  -0.595367 0.0744208 0  -0.532152 0.0354768 0  -0.466667 0 0  -0.465292 -0.0357917 0  -0.460317 -0.0767195 0  -0.450223 -0.122788 0  -0.433289 -0.173316 0  -0.40794 -0.226633 0  -0.373333 -0.28 0  -0.329983 -0.329983 0  -0.28 -0.373333 0  -0.226633 -0.40794 0  -0.173316 -0.433289 0  -0.122788 -0.450223 0  -0.0767195 -0.460317 0  -0.0357917 -0.465292 0  -5.55112e-017 -0.466667 0  0.0354768 -0.532152 0  0.0744208 -0.595367 0  0.115857 -0.656522 0  0.159082 -0.715871 0  0.203595 -0.77366 0  0.249035 -0.830116 0  0.295146 -0.885438 0  0.341743 -0.939793 0  -0.919145 0.393919 0  -0.866578 0.346631 0  -0.813231 0.299611 0  -0.758947 0.252982 0  -0.703535 0.206922 0  -0.646762 0.16169 0  -0.588348 0.11767 0  -0.527973 0.0754247 0  -0.465292 0.0357917 0  -0.4 0 0  -0.398357 -0.0362143 0  -0.392232 -0.0784465 0  -0.379473 -0.126491 0  -0.357771 -0.178885 0  -0.325493 -0.232495 0  -0.282843 -0.282843 0  -0.232495 -0.325493 0  -0.178885 -0.357771 0  -0.126491 -0.379473 0  -0.0784465 -0.392232 0  -0.0362143 -0.398357 0  -5.55112e-017 -0.4 0  0.0357917 -0.465292 0  0.0754247 -0.527973 0  0.11767 -0.588348 0  0.16169 -0.646762 0  0.206922 -0.703535 0  0.252982 -0.758947 0  0.299611 -0.813231 0  0.346631 -0.866578 0  0.393919 -0.919145 0  -0.894427 0.447214 0  -0.843489 0.399547 0  -0.79197 0.351987 0  -0.739742 0.3046 0  -0.686641 0.257491 0  -0.632456 0.210819 0  -0.576914 0.164833 0  -0.519675 0.119925 0  -0.460317 0.0767195 0  -0.398357 0.0362143 0  -0.333333 0 0  -0.331295 -0.0368105 0  -0.323381 -0.0808452 0  -0.306382 -0.131306 0  -0.27735 -0.1849 0  -0.235702 -0.235702 0  -0.1849 -0.27735 0  -0.131306 -0.306382 0  -0.0808452 -0.323381 0  -0.0368105 -0.331295 0  -5.55112e-017 -0.333333 0  0.0362143 -0.398357 0  0.0767195 -0.460317 0  0.119925 -0.519675 0  0.164833 -0.576914 0  0.210819 -0.632456 0  0.257491 -0.686641 0  0.3046 -0.739742 0  0.351987 -0.79197 0  0.399547 -0.843489 0  0.447214 -0.894427 0  -0.865426 0.501036 0  -0.81588 0.453267 0  -0.76595 0.405503 0  -0.715542 0.357771 0  -0.664534 0.310116 0  -0.612763 0.262613 0  -0.560007 0.215387 0  -0.505964 0.168655 0  -0.450223 0.122788 0  -0.392232 0.0784465 0  -0.331295 0.0368105 0  -0.266667 0 0  -0.263987 -0.0377124 0  -0.252982 -0.0843274 0  -0.228665 -0.137199 0  -0.188562 -0.188562 0  -0.137199 -0.228665 0  -0.0843274 -0.252982 0  -0.0377124 -0.263987 0  -5.55112e-017 -0.266667 0  0.0368105 -0.331295 0  0.0784465 -0.392232 0  0.122788 -0.450223 0  0.168655 -0.505964 0  0.215387 -0.560007 0  0.262613 -0.612763 0  0.310116 -0.664534 0  0.357771 -0.715542 0  0.405503 -0.76595 0  0.453267 -0.81588 0  0.501036 -0.865426 0  -0.83205 0.5547 0  -0.783599 0.507035 0  -0.734932 0.459332 0  -0.685994 0.411597 0  -0.636712 0.363835 0  -0.586981 0.316067 0  -0.536656 0.268328 0  -0.485529 0.220695 0  -0.433289 0.173316 0  -0.379473 0.126491 0  -0.323381 0.0808452 0  -0.263987 0.0377124 0  -0.2 0 0  -0.196116 -0.0392232 0  -0.178885 -0.0894427 0  -0.141421 -0.141421 0  -0.0894427 -0.178885 0  -0.0392232 -0.196116 0  0 -0.2 0  0.0377124 -0.263987 0  0.0808452 -0.323381 0  0.126491 -0.379473 0  0.173316 -0.433289 0  0.220695 -0.485529 0  0.268328 -0.536656 0  0.316067 -0.586981 0  0.363835 -0.636712 0  0.411597 -0.685994 0  0.459332 -0.734932 0  0.507035 -0.783599 0  0.5547 -0.83205 0  -0.794358 0.60745 0  -0.746667 0.56 0  -0.698884 0.512515 0  -0.650987 0.464991 0  -0.602941 0.417421 0  -0.5547 0.3698 0  -0.506197 0.322125 0  -0.45733 0.274398 0  -0.40794 0.226633 0  -0.357771 0.178885 0  -0.306382 0.131306 0  -0.252982 0.0843274 0  -0.196116 0.0392232 0  -0.133333 0 0  -0.126491 -0.0421637 0  -0.0942809 -0.0942809 0  -0.0421637 -0.126491 0  0 -0.133333 0  0.0392232 -0.196116 0  0.0843274 -0.252982 0  0.131306 -0.306382 0  0.178885 -0.357771 0  0.226633 -0.40794 0  0.274398 -0.45733 0  0.322125 -0.506197 0  0.3698 -0.5547 0  0.417421 -0.602941 0  0.464991 -0.650987 0  0.512515 -0.698884 0  0.56 -0.746667 0  0.60745 -0.794358 0  -0.752577 0.658505 0  -0.70531 0.611269 0  -0.658022 0.564019 0  -0.610709 0.516754 0  -0.563362 0.469469 0  -0.515972 0.422159 0  -0.468521 0.374817 0  -0.420988 0.327435 0  -0.373333 0.28 0  -0.32549
[...]
<PointData  Scalars="u"> 
<DataArray  type="Float32"  Name="u"  format="ascii">0.000000e+000  0.000000e+000  0.000000e+000  0.000000e+000  0.000000e+000  0.000000e+000  0.000000e+000  0.000000e+000  0.000000e+000  0.000000e+000  0.000000e+000  0.000000e+000  0.000000e+000  0.000000e+000  0.000000e+000  0.000000e+000  0.000000e+000  0.000000e+000  0.000000e+000  0.000000e+000  0.000000e+000  0.000000e+000  0.000000e+000  0.000000e+000  0.000000e+000  0.000000e+000  0.000000e+000  0.000000e+000  0.000000e+000  0.000000e+000  0.000000e+000  0.000000e+000  2.177328e-004  2.133664e-004  2.106968e-004  2.083468e-004  2.062878e-004  2.044493e-004  2.028183e-004  2.014050e-004  2.002254e-004  1.992894e-004  1.985930e-004  1.981150e-004  1.978192e-004  1.976644e-004  1.976170e-004  1.976644e-004  1.978192e-004  1.981150e-004  1.985930e-004  1.992894e-004  2.002254e-004  2.014050e-004  2.028183e-004  2.044493e-004  2.062878e-004  2.083468e-004  2.106967e-004  2.133664e-004  2.177328e-004  0.000000e+000  0.000000e+000  2.133664e-004  5.552925e-004  5.493269e-004  5.447630e-004  5.403159e-004  5.360945e-004  5.321508e-004  5.285607e-004  5.254180e-004  5.228060e-004  5.207732e-004  5.193155e-004  5.183764e-004  5.178676e-004  5.177087e-004  5.178675e-004  5.183764e-004  5.193155e-004  5.207731e-004  5.228060e-004  5.254180e-004  5.285606e-004  5.321507e-004  5.360945e-004  5.403158e-004  5.447630e-004  5.493269e-004  5.552924e-004  2.133664e-004  0.000000e+000  0.000000e+000  2.106968e-004  5.493269e-004  1.158780e-003  1.152761e-003  1.147188e-003  1.141284e-003  1.135155e-003  1.129062e-003  1.123278e-003  1.118102e-003  1.113794e-003  1.110513e-003  1.108287e-003  1.107031e-003  1.106630e-003  1.107031e-003  1.108287e-003  1.110513e-003  1.113794e-003  1.118102e-003  1.123278e-003  1.129062e-003  1.135155e-003  1.141284e-003  1.147188e-003  1.152761e-003  1.158780e-003  5.493269e-004  2.106967e-004  0.000000e+000  0.000000e+000  2.083468e-004  5.447630e-004  1.152761e-003  2.200653e-003  2.199235e-003  2.195730e-003  2.191016e-003  2.184942e-003  2.178013e-003  2.170826e-003  2.164082e-003  2.158423e-003  2.154279e-003  2.151812e-003  2.151001e-003  2.151812e-003  2.154279e-003  2.158423e-003  2.164082e-003  2.170826e-003  2.178013e-003  2.184942e-003  2.191016e-003  2.195730e-003  2.199235e-003  2.200653e-003  1.152761e-003  5.447630e-004  2.083468e-004  0.000000e+000  0.000000e+000  2.062878e-004  5.403159e-004  1.147188e-003  2.199235e-003  3.819441e-003  3.831780e-003  3.837490e-003  3.840581e-003  3.840211e-003  3.836931e-003  3.831696e-003  3.825838e-003  3.820701e-003  3.817282e-003  3.816096e-003  3.817282e-003  3.820701e-003  3.825838e-003  3.831696e-003  3.836931e-003  3.840211e-003  3.840581e-003  3.837490e-003  3.831780e-003  3.819441e-003  2.199235e-003  1.147188e-003  5.403158e-004  2.062878e-004  0.000000e+000  0.000000e+000  2.044493e-004  5.360945e-004  1.141284e-003  2.195730e-003  3.831780e-003  5.949704e-003  5.986083e-003  6.011265e-003  6.032714e-003  6.048146e-003  6.057225e-003  6.060759e-003  6.060708e-003  6.059440e-003  6.058791e-003  6.059440e-003  6.060708e-003  6.060759e-003  6.057225e-003  6.048146e-003  6.032714e-003  6.011265e-003  5.986083e-003  5.949704e-003  3.831780e-003  2.195730e-003  1.141284e-003  5.360945e-004  2.044493e-004  0.000000e+000  0.000000e+000  2.028183e-004  5.321508e-004  1.135155e-003  2.191016e-003  3.837490e-003  5.986083e-003  8.047910e-003  8.106635e-003  8.155796e-003  8.203281e-003  8.244208e-003  8.274873e-003  8.293991e-003  8.303299e-003  8.305890e-003  8.303299e-003  8.293991e-003  8.274873e-003  8.244209e-003  8.203281e-003  8.155796e-003  8.106635e-003  8.047910e-003  5.986083e-003  3.837490e-003  2.191016e-003  1.135155e-003  5.321508e-004  2.028183e-004  0.000000e+000  0.000000e+000  2.014050e-004  5.285607e-004  1.129062e-003  2.184942e-003  3.840581e-003  6.011265e-003  8.106635e-003  8.896425e-003  8.943802e-003  8.997417e-003  9.059140e-003  9.120339e-003  9.169433e-003  9.199004e-003  9.208429e-003  9.199004e-003  9.169433e-003  9.120339e-003  9.059140e-003  8.997417e-003  8.943802e-003  8.896425e-003  8.106635e-003  6.011265e-003  3.840581e-003  2.184942e-003  1.129062e-003  5.285607e-004  2.014050e-004  0.000000e+000  0.000000e+000  2.002254e-004  5.254180e-004  1.123278e-003  2.178013e-003  3.840211e-003  6.032714e-003  8.155796e-003  8.943802e-003  6.932973e-003  6.903692e-003  6.908250e-003  6.939351e-003  6.985630e-003  7.023712e-003  7.037588e-003  7.023712e-003  6.985630e-003  6.939351e-003  6.908250e-003  6.903692e-003  6.932973e-003  8.943802e-003  8.155796e-003  6.032714e-003  3.840211e-003  2.178013e-003  1.123278e-003  5.254180e-004  2.002254e-004  0.000000e+000  0.000000e+000  1.992894e-004  5.228060e-004  1.118102e-003  2.170826e-003  3.836931e-003  6.048146e-003  8.203281e-003  8.997417e-003  6.903692e-003  1.512663e-003  1.373995e-003  1.282102e-003  1.232610e-003  1.221034e-003  1.221154e-003  1.221034e-003  1.232610e-003  1.282103e-003  1.373995e-003  1.512664e-003  6.903692e-003  8.997417e-003  8.203281e-003  6.048146e-003  3.836931e-003  2.170826e-003  1.118102e-003  5.228060e-004  1.992894e-004  0.000000e+000  0.000000e+000  1.985930e-004  5.207732e-004  1.113794e-003  2.164082e-003  3.831696e-003  6.057225e-003  8.244208e-003  9.059140e-003  6.908250e-003  1.373995e-003  -5.527693e-003  -5.677576e-003  -5.815995e-003  -5.915009e-003  -5.946828e-003  -5.915009e-003  -5.815995e-003  -5.677575e-003  -5.527693e-003  1.373995e-003  6.908250e-003  9.059140e-003  8.244209e-003  6.057225e-003  3.831696e-003  2.164082e-003  1.113794e-003  5.207731e-004  1.985930e-004  0.000000e+000  0.000000e+000  1.981150e-004  5.193155e-004  1.110513e-003  2.158423e-003  3.825838e-003  6.060759e-003  8.274873e-003  9.120339e-003  6.939351e-003  1.282102e-003  -5.677576e-003  -1.031493e-002  -1.030294e-002  -1.034642e-002  -1.037124e-002  -1.034642e-002  -1.030294e-002  -1.031493e-002  -5.677575e-003  1.282103e-003  6.939351e-003  9.120339e-003  8.274873e-003  6.060759e-003  3.825838e-003  2.158423e-003  1.110513e-003  5.193155e-004  1.981150e-004  0.000000e+000  0.000000e+000  1.978192e-004  5.183764e-004  1.108287e-003  2.154279e-003  3.820701e-003  6.060708e-003  8.293991e-003  9.169433e-003  6.985630e-003  1.232610e-003  -5.815995e-003  -1.030294e-002  -1.072500e-002  -1.057642e-002  -1.052863e-002  -1.057642e-002  -1.072500e-002  -1.030294e-002  -5.815995e-003  1.232610e-003  6.985630e-003  9.169433e-003  8.293991e-003  6.060708e-003  3.820701e-003  2.154279e-003  1.108287e-003  5.183764e-004  1.978192e-004  0.000000e+000  0.000000e+000  1.976644e-004  5.178676e-004  1.107031e-003  2.151812e-003  3.817282e-003  6.059440e-003  8.303299e-003  9.199004e-003  7.023712e-003  1.221034e-003  -5.915009e-003  -1.034642e-002  -1.057642e-002  -8.998023e-003  -8.947159e-003  -8.998023e-003  -1.057642e-002  -1.034642e-002  -5.915009e-003  1.221034e-003  7.023712e-003  9.199004e-003  8.303299e-003  6.059440e-003  3.817282e-003  2.151812e-003  1.107031e-003  5.178676e-004  1.976644e-004  0.000000e+000  0.000000e+000  1.976170e-004  5.177087e-004  1.106630e-003  2.151001e-003  3.816096e-003  6.058791e-003  8.305890e-003  9.208429e-003  7.037588e-003  1.221154e-003  -5.946828e-003  -1.037124e-002  -1.052863e-002  -8.947159e-003  -8.131002e-003  -8.947159e-003  -1.052863e-002  -1.037124e-002  -5.946828e-003  1.221154e-003  7.037588e-003  9.208428e-003  8.305890e-003  6.058791e-003  3.816096e-003  2.151001e-003  1.106630e-003  5.177087e-004  1.976171e-004  0.000000e+000  0.000000e+000  1.976644e-004  5.178675e-004  1.107031e-003  2.151812e-003  3.817282e-003  6.059440e-003  8.303299e-003  9.199004e-003  7.023712e-003  1.221034e-003  -5.915009e-003  -1.034642e-002  -1.057642e-002  -8.998023e-003  -8.947159e-003  -8.998023e-003  -1.057642e-002  -1.034642e-002  -5.915009e-003  1.221034e-003  7.023712e-003  9.199004e-003  8.303299e-003  6.059440e-003  3.817282e-003  2.151812e-003  1.107031e-003  5.178676e-004  1.976644e-004  0.000000e+000  0.000000e+000  1.978192e-004  5.183764e-004  1.108287e-003  2.154279e-003  3.820701e-003  6.060708e-003  8.293991e-003  9.169433e-003  6.985630e-003  1.232610e-003  -5.815995e-003  -1.030294e-002  -1.072500e-002  -1.057642e-002  -1.052863e-002  -1.057642e-002  -1.072500e-002  -1.030294e-002  -5.815995e-003  1.232610e-003  6.985630e-003  9.169433e-003  8.293991e-003  6.060708e-003  3.820701e-003  2.154279e-003  1.108287e-003  5.183764e-004  1.978192e-004  0.000000e+000  0.000000e+000  1.981150e-004  5.193155e-004  1.110513e-003  2.158423e-003  3.825838e-003  6.060759e-003  8.274873e-003  9.120339e-003  6.939351e-003  1.282103e-003  -5.677575e-003  -1.031493e-002  -1.030294e-002  -1.034642e-002  -1.037124e-002  -1.034642e-002  -1.030294e-002  -1.031493e-002  -5.677576e-003  1.282102e-003  6.939351e-003  9.120339e-003  8.274873e-003  6.060759e-003  3.825838e-003  2.158423e-003  1.110513e-003  5.193156e-004  1.981150e-004  0.000000e+000  0.000000e+000  1.985930e-004  5.207731e-004  1.113794e-003  2.164082e-003  3.831696e-003  6.057225e-003  8.244209e-003  9.059140e-003  6.908250e-003  1.373995e-003  -5.527693e-003  -5.677575e-003  -5.815995e-003  -5.915009e-003  -5.946828e-003  -5.915009e-003  -5.815995e-003  -5.677576e-003  -5.527693e-003  1.373995e-003  6.908250e-003  9.059140e-003  8.244208e-003  6.057225e-003  3.831696e-003  2.164082e-003  1.113794e-003  5.207732e-004  1.985930e-004  0.000000e+000  0.000000e+000  1.992894e-004  5.228060e-004  1.118102e-003  2.170826e-003  3.836931e-003  6.048146e-003  8.203281e-003  8.997417e-003  6.903692e-003  1.512664e-003  1.373995e-003  1.282103e-003  1.232610e-003  1.221034e-003  1.221154e-003  1.221034e-003  1.232610e-003  1.282102e-003  1.373995e-003  1.512663e-003  6.903692e-003  8.997417e-003  8.203281e-003  6.048146e-003  3.836931e-003  2.170826e-003  1.118102e-003  5.228060e-004  1.992894e-004  0.000000e+000  0.000000e+000  2.002254e-004  5.254180e-004  1.123278e-003  2.178013e-003  3.840211e-003  6.032714e-003  8.155796e-003  8.943802e-003  6.932973e-003  6.903692e-003  6.908250e-003  6.939351e-003  6.985630e-003  7.023712e-003  7.037588e-003  7.023712e-003  6.985630e-003  6.939351e-003  6.908250e-003  6.903692e-003  6.932973e-003  8.943802e-003  8.155796e-003  6.032714e-003  3.840211e-003  2.178013e-003  1.123278e-003  5.254180e-004  2.002254e-004  0.000000e+000  0.000000e+000  2.014050e-004  5.285606e-004  1.129062e-003  2.184942e-003  3.840581e-003  6.011265e-003  8.106635e-003  8.896425e-003  8.943802e-003  8.997417e-003  9.059140e-003  9.120339e-003  9.169433e-003  9.199004e-003  9.208428e-003  9.199004e-003  9.169433e-003  9.120339e-003  9.059140e-003  8.997417e-003  8.943802e-003  8.896425e-003  8.106635e-003  6.011265e-003  3.840581e-003  2.184942e-003  1.129062e-003  5.285607e-004  2.014050e-004  0.000000e+000  0.000000e+000  2.028183e-004  5.321507e-004  1.135155e-003  2.191016e-003  3.837490e-003  5.986083e-003  8.047910e-003  8.106635e-003  8.155796e-003  8.203281e-003  8.244209e-003  8.274873e-003  8.293991e-003  8.303299e-003  8.305890e-003  8.303299e-003  8.293991e-003  8.274873e-003  8.244208e-003  8.203281e-003  8.155796e-003  8.106635e-003  8.047910e-003  5.986083e-003  3.837490e-003  2.191016e-003  1.135155e-003  5.321508e-004  2.028183e-004  0.000000e+000  0.000000e+000  2.044493e-004  5.360945e-004  1.141284e-003  2.195730e-003  3.831780e-003  5.949704e-003  5.986083e-003  6.011265e-003  6.032714e-003  6.048146e-003  6.057225e-003  6.060759e-003  6.060708e-003  6.059440e-003  6.058791e-003  6.059440e-003  6.060708e-003  6.060759e-003  6.057225e-003  6.048146e-003  6.032714e-003  6.011265e-003  5.986083e-003  5.949704e-003  3.831780e-003  2.195730e-003  1.141284e-003  5.360945e-004  2.044493e-004  0.000000e+000  0.000000e+000  2.062878e-004  5.403158e-004  1.147188e-003  2.199235e-003  3.819441e-003  3.831780e-003  3.837490e-003  3.840581e-003  3.840211e-003  3.836931e-003  3.831696e-003  3.825838e-003  3.820701e-003  3.817282e-003  3.816096e-003  3.817282e-003  3.820701e-003  3.825838e-003  3.831696e-003  3.836931e-003  3.840211e-003  3.840581e-003  3.837490e-003  3.831780e-003  3.819441e-003  2.199235e-003  1.147188e-003  5.403159e-004  2.062878e-004  0.000000e+000  0.000000e+000  2.083468e-004  5.447630e-004  1.152761e-003  2.200653e-003  2.199235e-003  2.195730e-003  2.191016e-003  2.184942e-003  2.178013e-003  2.170826e-003  2.164082e-003  2.158423e-003  2.154279e-003  2.151812e-003  2.151001e-003  2.151812e-003  2.154279e-003  2.158423e-003  2.164082e-003  2.170826e-003  2.178013e-003  2.184942e-003  2.191016e-003  2.195730e-003  2.199235e-003  2.200653e-003  1.152761e-003  5.447630e-004  2.083468e-004  0.000000e+000  0.000000e+000  2.106967e-004  5.493269e-004  1.158780e-003  1.152761e-003  1.147188e-003  1.141284e-003  1.135155e-003  1.129062e-003  1.123278e-003  1.118102e-003  1.113794e-003  1.110513e-003  1.108287e-003  1.107031e-003  1.106630e-003  1.107031e-003  1.108287e-003  1.110513e-003  1.113794e-003  1.118102e-003  1.123278e-003  1.129062e-003  1.135155e-003  1.141284e-003  1.147188e-003  1.152761e-003  1.158780e-003  5.493269e-004  2.106968e-004  0.000000e+000  0.000000e+000  2.133664e-004  5.552924e-004  5.493269e-004  5.447630e-004  5.403158e-004  5.360945e-004  5.321508e-004  5.285607e-004  5.254180e-004  5.228060e-004  5.207731e-004  5.193155e-004  5.183764e-004  5.178676e-004  5.177087e-004  5.178676e-004  5.183764e-004  5.193156e-004  5.207732e-004  5.228060e-004  5.254180e-004  5.285607e-004  5.321508e-004  5.360945e-004  5.403159e-004  5.447630e-004  5.493269e-004  5.552925e-004  2.133664e-004  0.000000e+000  0.000000e+000  2.177328e-004  2.133664e-004  2.106967e-004  2.083468e-004  2.062878e-004  2.044493e-004  2.028183e-004  2.014050e-004  2.002254e-004  1.992894e-004  1.985930e-004  1.981150e-004  1.978192e-004  1.976644e-004  1.976171e-004  1.976644e-004  1.978192e-004  1.981150e-004  1.985930e-004  1.992894e-004  2.002254e-004  2.014050e-004  2.028183e-004  2.044493e-004  2.062878e-004  2.083468e-004  2.106968e-004  2.133664e-004  2.177328e-004  0.000000e+000  0.000000e+000  0.000000e+000  0.000000e+000  0.000000e+000  0.000000e+000  0.000000e+000  0.000000e+000  0.000000e+000  0.000000e+000  0.000000e+000  0.000000e+000  0.000000e+000  0.000000e+000  0.000000e+000  0.000000e+000  0.000000e+000  0.000000e+000  0.000000e+000  0.000000e+000  0.000000e+000  0.000000e+000  0.000000e+000  0.000000e+000  0.000000e+000  0.000000e+000  0.000000e+000  0.000000e+000  0.000000e+000  0.000000e+000  0.000000e+000  0.000000e+000  1.070939e-004  1.051898e-004  1.033474e-004  1.018754e-004  1.005310e-004  9.928567e-005  9.812427e-005  9.705088e-005  9.607775e-005  9.521958e-005  9.448994e-005  9.389918e-005  9.345369e-005  9.315633e-005  9.300774e-005  9.300774e-005  9.315633e-005  9.345368e-005  9.389917e-005  9.448993e-005  9.521957e-005  9.607774e-005  9.705087e-005  9.812425e-005  9.928565e-005  1.005310e-004  1.018754e-004  1.033474e-004  1.051898e-004  1.070939e-004  1.051898e-004  3.795722e-004  3.756367e-004  3.710848e-004  3.668876e-004  3.628446e-004  3.589713e-004  3.553110e-004  3.519334e-004  3.489185e-004  3.463405e-004  3.442545e-004  3.426906e-004  3.416557e-004  3.411423e-004  3.411423e-004  3.416557e-004  3.426906e-004  3.442544e-004  3.463404e-004  3.489185e-004  3.519333e-004  3.553109e-004  3.589713e-004  3.628445e-004  3.668875e-004  3.710847e-004  3.756367e-004  3.795721e-004  1.051898e-004  1.033474e-004  3.756367e-004  8.445464e-004  8.395607e-004  8.328676e-004  8.260360e-004  8.190150e-004  8.119600e-004  8.050849e-004  7.986438e-004  7.929013e-004  7.880925e-004  7.843906e-004  7.818947e-004  7.806432e-004  7.806432e-004  7.818947e-004  7.843906e-004  7.880925e-004  7.929012e-004  7.986437e-004  8.050849e-004  8.119600e-004  8.190150e-004  8.260360e-004  8.328676e-004  8.395607e-004  8.445464e-004  3.756367e-004  1.033474e-004  1.018754e-004  3.710848e-004  8.395607e-004  1.661335e-003  1.657348e-003  1.650473e-003  1.642328e-003  1.633078e-003  1.623045e-003  1.612750e-003  1.602839e-003  1.594001e-003  1.586857e-003  1.581868e-003  1.579314e-003  1.579314e-003  1.581868e-003  1.586857e-003  1.594001e-003  1.602839e-003  1.612750e-003  1.623045e-003  1.633078e-003  1.642328e-003  1.650473e-003  1.657348e-003  1.661335e-003  8.395607e-004  3.710847e-004  1.018754e-004  1.005310e-004  3.668876e-004  8.328676e-004  1.657348e-003  2.989383e-003  2.991477e-003  2.990163e-003  2.985600e-003  2.978161e-003  2.968216e-003  2.956696e-003  2.944929e-003  2.934430e-003  2.926587e-003  2.922410e-003  2.922410e-003  2.926587e-003  2.934430e-003  2.944929e-003  2.956696e-003  2.968217e-003  2.978161e-003  2.985600e-003  2.990163e-003  2.991477e-003  2.989383e-003  1.657348e-003  8.328676e-004  3.668875e-004  1.005310e-004  9.928567e-005  3.628446e-004  8.260360e-004  1.650473e-003  2.991477e-003  4.873673e-003  4.889910e-003  4.904953e-003  4.914653e-003  4.919099e-003  4.918099e-003  4.912686e-003  4.904998e-003  4.897759e-003  4.893426e-003  4.893426e-003  4.897759e-003  4.904998e-003  4.912686e-003  4.918099e-003  4.919100e-003  4.914653e-003  4.904954e-003  4.889910e-003  4.873673e-003  2.991477e-003  1.650473e-003  8.260360e-004  3.628445e-004  9.928565e-005  9.812427e-005  3.589713e-004  8.190150e-004  1.642328e-003  2.990163e-003  4.889910e-003  7.020004e-003  7.056262e-003  7.099422e-003  7.138077e-003  7.170405e-003  7.193726e-003  7.207458e-003  7.213555e-003  7.215350e-003  7.215350e-003  7.213555e-003  7.207458e-003  7.193726e-003  7.170405e-003  7.138077e-003  7.099422e-003  7.056262e-003  7.020004e-003  4.889910e-003  2.990163e-003  1.642328e-003  8.190150e-004  3.589713e-004  9.812426e-005  9.705088e-005  3.553110e-004  8.119600e-004  1.633078e-003  2.985600e-003  4.904953e-003  7.056262e-003  8.548198e-003  8.595616e-003  8.665190e-003  8.739544e-003  8.811957e-003  8.872824e-003  8.914824e-003  8.935562e-003  8.935562e-003  8.914825e-003  8.872824e-003  8.811957e-003  8.739544e-003  8.665190e-003  8.595617e-003  8.548198e-003  7.056262e-003  4.904954e-003  2.985600e-003  1.633078e-003  8.119600e-004  3.553110e-004  9.705087e-005  9.607775e-005  3.519334e-004  8.050849e-004  1.623045e-003  2.978161e-003  4.914653e-003  7.099422e-003  8.595616e-003  8.039159e-003  8.062533e-003  8.123263e-003  8.209573e-003  8.307504e-003  8.392960e-003  8.442162e-003  8.442162e-003  8.392960e-003  8.307504e-003  8.209573e-003  8.123263e-003  8.062534e-003  8.039159e-003  8.595617e-003  7.099422e-003  4.914653e-003  2.978161e-003  1.623045e-003  8.050849e-004  3.519333e-004  9.607774e-005  9.521958e-005  3.489185e-004  7.986438e-004  1.612750e-003  2.968216e-003  4.919099e-003  7.138077e-003  8.665190e-003  8.062533e-003  4.327539e-003  4.280845e-003  4.266505e-003  4.300540e-003  4.366240e-003  4.419502e-003  4.419502e-003  4.366240e-003  4.300540e-003  4.266505e-003  4.280845e-003  4.327539e-003  8.062534e-003  8.665190e-003  7.138077e-003  4.919100e-003  2.968217e-003  1.612750e-003  7.986438e-004  3.489185e-004  9.521957e-005  9.448994e-005  3.463405e-004  7.929013e-004  1.602839e-003  2.956696e-003  4.918099e-003  7.170405e-003  8.739544e-003  8.123263e-003  4.280845e-003  -2.026898e-003  -2.141166e-003  -2.267213e-003  -2.339728e-003  -2.356145e-003  -2.356145e-003  -2.339728e-003  -2.267213e-003  -2.141166e-003  -2.026898e-003  4.280845e-003  8.123263e-003  8.739544e-003  7.170405e-003  4.918099e-003  2.956696e-003  1.602839e-003  7.929013e-004  3.463404e-004  9.448994e-005  9.389918e-005  3.442545e-004  7.880925e-004  1.594001e-003  2.944929e-003  4.912686e-003  7.193726e-003  8.811957e-003  8.209573e-003  4.266505e-003  -2.141166e-003  -8.079843e-003  -8.170726e-003  -8.335372e-003  -8.449853e-003  -8.449853e-003  -8.335372e-003  -8.170726e-003  -8.079843e-003  -2.141166e-003  4.266505e-003  8.209573e-003  8.811957e-003  7.193726e-003  4.912686e-003  2.944929e-003  1.594001e-003  7.880925e-004  3.442544e-004  9.389918e-005  9.34