<?xml version="1.0"?>
<VTKFile type="UnstructuredGrid"  version="0.1"  >
<UnstructuredGrid>
<Piece  NumberOfPoints="961" NumberOfCells="1800">
<Points>
<DataArray  type="Float32"  NumberOfComponents="3"  format="ascii">0 0 0  0.0333333 0 0  0.0666667 0 0  0.1 0 0  0.133333 0 0  0.166667 0 0  0.2 0 0  0.233333 0 0  0.266667 0 0  0.3 0 0  0.333333 0 0  0.366667 0 0  0.4 0 0  0.433333 0 0  0.466667 0 0  0.5 0 0  0.533333 0 0  0.566667 0 0  0.6 0 0  0.633333 0 0  0.666667 0 0  0.7 0 0  0.733333 0 0  0.766667 0 0  0.8 0 0  0.833333 0 0  0.866667 0 0  0.9 0 0  0.933333 0 0  0.966667 0 0  1 0 0  0 0.0333333 0  0.0333333 0.0333333 0  0.0666667 0.0333333 0  0.1 0.0333333 0  0.133333 0.0333333 0  0.166667 0.0333333 0  0.2 0.0333333 0  0.233333 0.0333333 0  0.266667 0.0333333 0  0.3 0.0333333 0  0.333333 0.0333333 0  0.366667 0.0333333 0  0.4 0.0333333 0  0.433333 0.0333333 0  0.466667 0.0333333 0  0.5 0.0333333 0  0.533333 0.0333333 0  0.566667 0.0333333 0  0.6 0.0333333 0  0.633333 0.0333333 0  0.666667 0.0333333 0  0.7 0.0333333 0  0.733333 0.0333333 0  0.766667 0.0333333 0  0.8 0.0333333 0  0.833333 0.0333333 0  0.866667 0.0333333 0  0.9 0.0333333 0  0.933333 0.0333333 0  0.966667 0.0333333 0  1 0.0333333 0  0 0.0666667 0  0.0333333 0.0666667 0  0.0666667 0.0666667 0  0.1 0.0666667 0  0.133333 0.0666667 0  0.166667 0.0666667 0  0.2 0.0666667 0  0.233333 0.0666667 0  0.266667 0.0666667 0  0.3 0.0666667 0  0.333333 0.0666667 0  0.366667 0.0666667 0  0.4 0.0666667 0  0.433333 0.0666667 0  0.466667 0.0666667 0  0.5 0.0666667 0  0.533333 0.0666667 0  0.566667 0.0666667 0  0.6 0.0666667 0  0.633333 0.0666667 0  0.666667 0.0666667 0  0.7 0.0666667 0  0.733333 0.0666667 0  0.766667 0.0666667 0  0.8 0.0666667 0  0.833333 0.0666667 0  0.866667 0.0666667 0  0.9 0.0666667 0  0.933333 0.0666667 0  0.966667 0.0666667 0  1 0.0666667 0  0 0.1 0  0.0333333 0.1 0  0.0666667 0.1 0  0.1 0.1 0  0.133333 0.1 0  0.166667 0.1 0  0.2 0.1 0  0.233333 0.1 0  0.266667 0.1 0  0.3 0.1 0  0.333333 0.1 0  0.366667 0.1 0  0.4 0.1 0  0.433333 0.1 0  0.466667 0.1 0  0.5 0.1 0  0.533333 0.1 0  0.566667 0.1 0  0.6 0.1 0  0.633333 0.1 0  0.666667 0.1 0  0.7 0.1 0  0.733333 0.1 0  0.766667 0.1 0  0.8 0.1 0  0.833333 0.1 0  0.866667 0.1 0  0.9 0.1 0  0.933333 0.1 0  0.966667 0.1 0  1 0.1 0  0 0.133333 0  0.0333333 0.133333 0  0.0666667 0.133333 0  0.1 0.133333 0  0.133333 0.133333 0  0.166667 0.133333 0  0.2 0.133333 0  0.233333 0.133333 0  0.266667 0.133333 0  0.3 0.133333 0  0.333333 0.133333 0  0.366667 0.133333 0  0.4 0.133333 0  0.433333 0.133333 0  0.466667 0.133333 0  0.5 0.133333 0  0.533333 0.133333 0  0.566667 0.133333 0  0.6 0.133333 0  0.633333 0.133333 0  0.666667 0.133333 0  0.7 0.133333 0  0.733333 0.133333 0  0.766667 0.133333 0  0.8 0.133333 0  0.833333 0.133333 0  0.866667 0.133333 0  0.9 0.133333 0  0.933333 0.133333 0  0.966667 0.133333 0  1 0.133333 0  0 0.166667 0  0.0333333 0.166667 0  0.0666667 0.166667 0  0.1 0.166667 0  0.133333 0.166667 0  0.166667 0.166667 0  0.2 0.166667 0  0.233333 0.166667 0  0.266667 0.166667 0  0.3 0.166667 0  0.333333 0.166667 0  0.366667 0.166667 0  0.4 0.166667 0  0.433333 0.166667 0  0.466667 0.166667 0  0.5 0.166667 0  0.533333 0.166667 0  0.566667 0.166667 0  0.6 0.166667 0  0.633333 0.166667 0  0.666667 0.166667 0  0.7 0.166667 0  0.733333 0.166667 0  0.766667 0.166667 0  0.8 0.166667 0  0.833333 0.166667 0  0.866667 0.166667 0  0.9 0.166667 0  0.933333 0.166667 0  0.966667 0.166667 0  1 0.166667 0  0 0.2 0  0.0333333 0.2 0  0.0666667 0.2 0  0.1 0.2 0  0.133333 0.2 0  0.166667 0.2 0  0.2 0.2 0  0.233333 0.2 0  0.266667 0.2 0  0.3 0.2 0  0.333333 0.2 0  0.366667 0.2 0  0.4 0.2 0  0.433333 0.2 0  0.466667 0.2 0  0.5 0.2 0  0.533333 0.2 0  0.566667 0.2 0  0.6 0.2 0  0.633333 0.2 0  0.666667 0.2 0  0.7 0.2 0  0.733333 0.2 0  0.766667 0.2 0  0.8 0.2 0  0.833333 0.2 0  0.866667 0.2 0  0.9 0.2 0  0.933333 0.2 0  0.966667 0.2 0  1 0.2 0  0 0.233333 0  0.0333333 0.233333 0  0.0666667 0.233333 0  0.1 0.233333 0  0.133333 0.233333 0  0.166667 0.233333 0  0.2 0.233333 0  0.233333 0.233333 0  0.266667 0.233333 0  0.3 0.233333 0  0.333333 0.233333 0  0.366667 0.233333 0  0.4 0.233333 0  0.433333 0.233333 0  0.466667 0.233333 0  0.5 0.233333 0  0.533333 0.233333 0  0.566667 0.233333 0  0.6 0.233333 0  0.633333 0.233333 0  0.666667 0.233333 0  0.7 0.233333 0  0.733333 0.233333 0  0.766667 0.233333 0  0.8 0.233333 0  0.833333 0.233333 0  0.866667 0.233333 0  0.9 0.233333 0  0.933333 0.233333 0  0.966667 0.233333 0  1 0.233333 0  0 0.266667 0  0.0333333 0.266667 0  0.0666667 0.266667 0  0.1 0.266667 0  0.133333 0.266667 0  0.166667 0.266667 0  0.2 0.266667 0  0.233333 0.266667 0  0.266667 0.266667 0  0.3 0.266667 0  0.333333 0.266667 0  0.366667 0.266667 0  0.4 0.266667 0  0.433333 0.266667 0  0.466667 0.266667 0  0.5 0.266667 0  0.533333 0.266667 0  0.566667 0.266667 0  0.6 0.266667 0  0.633333 0.266667 0  0.666667 0.266667 0  0.7 0.266667 0  0.733333 0.266667 0  0.766667 0.266667 0  0.8 0.266667 0  0.833333 0.266667 0  0.866667 0.266667 0  0.9 0.266667 0  0.933333 0.266667 0  0.966667 0.266667 0  1 0.266667 0  0 0.3 0  0.0333333 0.3 0  0.0666667 0.3 0  0.1 0.3 0  0.133333 0.3 0  0.166667 0.3 0  0.2 0.3 0  0.233333 0.3 0  0.266667 0.3 0  0.3 0.3 0  0.333333 0.3 0  0.366667 0.3 0  0.4 0.3 0  0.433333 0.3 0  0.466667 0.3 0  0.5 0.3 0  0.533333 0.3 0  0.566667 0.3 0  0.6 0.3 0  0.633333 0.3 0  0.666667 0.3 0  0.7 0.3 0  0.733333 0.3 0  0.766667 0.3 0  0.8 0.3 0  0.833333 0.3 0  0.866667 0.3 0  0.9 0.3 0  0.933333 0.3 0  0.966667 0.3 0  1 0.3 0  0 0.333333 0  0.0333333 0.333333 0  0.0666667 0.333333 0  0.1 0.333333 0  0.133333 0.333333 0  0.166667 0.333333 0  0.2 0.333333 0  0.233333 0.333333 0  0.266667 0.333333 0  0.3 0.333333 0  0.333333 0.333333 0  0.366667 0.333333 0  0.4 0.333333 0  0.433333 0.333333 0  0.466667 0.333333 0  0.5 0.333333 0  0.533333 0.333333 0  0.566667 0.333333 0  0.6 0.333333 0  0.633333 0.333333 0  0.666667 0.333333 0  0.7 0.333333 0  0.733333 0.333333 0  0.766667 0.333333 0  0.8 0.333333 0  0.833333 0.333333 0  0.866667 0.333333 0  0.9 0.333333 0  0.933333 0.333333 0  0.966667 0.333333 0  1 0.333333 0  0 0.366667 0  0.0333333 0.366667 0  0.0666667 0.366667 0  0.1 0.366667 0  0.133333 0.366667 0  0.166667 0.366667 0  0.2 0.366667 0  0.233333 0.366667 0  0.266667 0.366667 0  0.3 0.366667 0  0.333333 0.366667 0  0.366667 0.366667 0  0.4 0.366667 0  0.433333 0.366667 0  0.466667 0.366667 0  0.5 0.366667 0  0.533333 0.366667 0  0.566667 0.366667 0  0.6 0.366667 0  0.633333 0.366667 0  0.666667 0.366667 0  0.7 0.366667 0  0.733333 0.366667 0  0.766667 0.366667 0  0.8 0.366667 0  0.833333 0.366667 0  0.866667 0.366667 0  0.9 0.366667 0  0.933333 0.366667 0  0.966667 0.366667 0  1 0.366667 0  0 0.4 0  0.0333333 0.4 0  0.0666667 0.4 0  0.1 0.4 0  0.133333 0.4 0  0.166667 0.4 0  0.2 0.4 0  0.233333 0.4 0  0.266667 0.4 0  0.3 0.4 0  0.333333 0.4 0  0.366667 0.4 0  0.4 0.4 0  0.433333 0.4 0  0.466667 0.4 0  0.5 0.4 0  0.533333 0.4 0  0.566667 0.4 0  0.6 0.4 0  0.633333 0.4 0  0.666667 0.4 0  0.7 0.4 0  0.733333 0.4 0  0.766667 0.4 0  0.8 0.4 0  0.833333 0.4 0  0.866667 0.4 0  0.9 0.4 0  0.933333 0.4 0  0.966667 0.4 0  1 0.4 0  0 0.433333 0  0.0333333 0.433333 0  0.0666667 0.433333 0  0.1 0.433333 0  0.133333 0.433333 0  0.166667 0.433333 0  0.2 0.433333 0  0.233333 0.433333 0  0.266667 0.433333 0  0.3 0.433333 0  0.333333 0.433333 0  0.366667 0.433333 0  0.4 0.433333 0  0.433333 0.433333 0  0.466667 0.433333 0  0.5 0.433333 0  0.533333 0.433333 0  0.566667 0.433333 0  0.6 0.433333 0  0.633333 0.433333 0  0.666667 0.433333 0  0.7 0.433333 0  0.733333 0.433333 0  0.766667 0.433333 0  0.8 0.433333 0  0.833333 0.433333 0  0.866667 0.433333 0  0.9 0.433333 0  0.933333 0.433333 0  0.966667 0.433333 0  1 0.433333 0  0 0.466667 0  0.0333333 0.466667 0  0.0666667 0.466667 0  0.1 0.466667 0  0.133333 0.466667 0  0.166667 0.466667 0  0.2 0.466667 0  0.233333 0.466667 0  0.266667 0.466667 0  0.3 0.466667 0  0.333333 0.466667 0  0.366667 0.466667 0  0.4 0.466667 0  0.433333 0.466667 0  0.466667 0.466667 0  0.5 0.466667 0  0.533333 0.466667 0  0.566667 0.466667 0  0.6 0.466667 0  0.633333 0.466667 0  0.666667 0.466667 0  0.7 0.466667 0  0.733333 0.466667 0  0.766667 0.466667 0  0.8 0.466667 0  0.833333 0.466667 0  0.866667 0.466667 0  0.9 0.466667 0  0.933333 0.466667 0  0.966667 0.466667 0  1 0.466667 0  0 0.5 0  0.0333333 0.5 0  0.0666667 0.5 0  0.1 0.5 0  0.133333 0.5 0  0.166667 0.5 0  0.2 0.5 0  0.233333 0.5 0  0.266667 0.5 0  0.3 0.5 0  0.333333 0.5 0  0.366667 0.5 0  0.4 0.5 0  0.433333 0.5 0  0.466667 0.5 0  0.5 0.5 0  0.533333 0.5 0  0.566667 0.5 0  0.6 0.5 0  0.633333 0.5 0  0.666667 0.5 0  0.7 0.5 0  0.733333 0.5 0  0.766667 0.5 0  0.8 0.5 0  0.833333 0.5 0  0.866667 0.5 0  0.9 0.5 0  0.933333 0.5 0  0.966667 0.5 0  1 0.5 0  0 0.533333 0  0.0333333 0.533333 0  0.0666667 0.533333 0  0.1 0.533333 0  0.133333 0.533333 0  0.166667 0.533333 0  0.2 0.533333 0  0.233333 0.533333 0  0.266667 0.533333 0  0.3 0.533333 0  0.333333 0.533333 0  0.366667 0.533333 0  0.4 0.533333 0  0.433333 0.533333 0  0.466667 0.533333 0  0.5 0.533333 0  0.533333 0.533333 0  0.566667 0.533333 0  0.6 0.533333 0  0.633333 0.533333 0  0.666667 0.533333 0  0.7 0.533333 0  0.733333 0.533333 0  0.766667 0.533333 0  0.8 0.533333 0  0.833333 0.533333 0  0.866667 0.533333 0  0.9 0.533333 0  0.933333 0.533333 0  0.966667 0.533333 0  1 0.533333 0  0 0.566667 0  0.0333333 0.566667 0  0.0666667 0.566667 0  0.1 0.566667 0  0.133333 0.566667 0  0.166667 0.566667 0  0.2 0.566667 0  0.233333 0.566667 0  0.266667 0.566667 0  0.3 0.566667 0  0.333333 0.566667 0  0.366667 0.566667 0  0.4 0.566667 0  0.433333 0.566667 0  0.466667 0.566667 0  0.5 0.566667 0  0.533333 0.566667 0  0.566667 0.566667 0  0.6 0.566667 0  0.633333 0.566667 0  0.666667 0.566667 0  0.7 0.566667 0  0.733333 0.566667 0  0.766667 0.566667 0  0.8 0.566667 0  0.833333 0.566667 0  0.866667 0.566667 0  0.9 0.566667 0  0.933333 0.566667 0  0.966667 0.566667 0  1 0.566667 0  0 0.6 0  0.033
[...]
<PointData  Scalars="u"> 
<DataArray  type="Float32"  Name="u"  format="ascii">0.000000e+000  0.000000e+000  0.000000e+000  0.000000e+000  0.000000e+000  0.000000e+000  0.000000e+000  0.000000e+000  0.000000e+000  0.000000e+000  0.000000e+000  0.000000e+000  0.000000e+000  0.000000e+000  0.000000e+000  0.000000e+000  0.000000e+000  0.000000e+000  0.000000e+000  0.000000e+000  0.000000e+000  0.000000e+000  0.000000e+000  0.000000e+000  0.000000e+000  0.000000e+000  0.000000e+000  0.000000e+000  0.000000e+000  0.000000e+000  0.000000e+000  0.000000e+000  -6.772225e-003  -1.345775e-002  -1.998807e-002  -2.629380e-002  -3.230698e-002  -3.796243e-002  -4.319859e-002  -4.795836e-002  -5.218968e-002  -5.584621e-002  -5.888777e-002  -6.128090e-002  -6.299929e-002  -6.402415e-002  -6.434451e-002  -6.395751e-002  -6.286844e-002  -6.109070e-002  -5.864563e-002  -5.556196e-002  -5.187522e-002  -4.762695e-002  -4.286392e-002  -3.763767e-002  -3.200417e-002  -2.602395e-002  -1.976204e-002  -1.328782e-002  -6.674591e-003  0.000000e+000  0.000000e+000  -1.345775e-002  -2.675079e-002  -3.973797e-002  -5.227974e-002  -6.424038e-002  -7.548995e-002  -8.590594e-002  -9.537464e-002  -1.037925e-001  -1.110673e-001  -1.171190e-001  -1.218812e-001  -1.253013e-001  -1.273421e-001  -1.279817e-001  -1.272144e-001  -1.250506e-001  -1.215169e-001  -1.166558e-001  -1.105244e-001  -1.031932e-001  -9.474498e-002  -8.527266e-002  -7.487873e-002  -6.367452e-002  -5.178023e-002  -3.932497e-002  -2.644610e-002  -1.328789e-002  0.000000e+000  0.000000e+000  -1.998807e-002  -3.973797e-002  -5.903680e-002  -7.767562e-002  -9.545200e-002  -1.121724e-001  -1.276546e-001  -1.417293e-001  -1.542427e-001  -1.650573e-001  -1.740545e-001  -1.811353e-001  -1.862216e-001  -1.892580e-001  -1.902119e-001  -1.890747e-001  -1.858620e-001  -1.806133e-001  -1.733916e-001  -1.642816e-001  -1.533882e-001  -1.408342e-001  -1.267578e-001  -1.113113e-001  -9.465989e-002  -7.698213e-002  -5.846943e-002  -3.932516e-002  -1.976223e-002  0.000000e+000  0.000000e+000  -2.629380e-002  -5.227974e-002  -7.767562e-002  -1.022052e-001  -1.256014e-001  -1.476089e-001  -1.679876e-001  -1.865146e-001  -2.029870e-001  -2.172240e-001  -2.290693e-001  -2.383924e-001  -2.450907e-001  -2.490909e-001  -2.503504e-001  -2.488577e-001  -2.446332e-001  -2.377290e-001  -2.282277e-001  -2.162408e-001  -2.019063e-001  -1.853858e-001  -1.668609e-001  -1.465321e-001  -1.246168e-001  -1.013495e-001  -7.698161e-002  -5.178013e-002  -2.602400e-002  0.000000e+000  0.000000e+000  -3.230698e-002  -6.424038e-002  -9.545200e-002  -1.256014e-001  -1.543594e-001  -1.814120e-001  -2.064635e-001  -2.292397e-001  -2.494910e-001  -2.669950e-001  -2.815593e-001  -2.930235e-001  -3.012615e-001  -3.061831e-001  -3.077357e-001  -3.059054e-001  -3.007170e-001  -2.922346e-001  -2.805595e-001  -2.658288e-001  -2.482120e-001  -2.279075e-001  -2.051387e-001  -1.801515e-001  -1.532131e-001  -1.246115e-001  -9.465527e-002  -6.367174e-002  -3.200290e-002  0.000000e+000  0.000000e+000  -3.796243e-002  -7.548995e-002  -1.121724e-001  -1.476089e-001  -1.814120e-001  -2.132121e-001  -2.426611e-001  -2.694365e-001  -2.932447e-001  -3.138241e-001  -3.309482e-001  -3.444285e-001  -3.541166e-001  -3.599064e-001  -3.617362e-001  -3.595894e-001  -3.534953e-001  -3.435290e-001  -3.298096e-001  -3.124982e-001  -2.917938e-001  -2.679294e-001  -2.411675e-001  -2.117970e-001  -1.801318e-001  -1.465100e-001  -1.112938e-001  -7.486746e-002  -3.763219e-002  0.000000e+000  0.000000e+000  -4.319859e-002  -8.590594e-002  -1.276546e-001  -1.679876e-001  -2.064635e-001  -2.426611e-001  -2.761839e-001  -3.066645e-001  -3.337682e-001  -3.571971e-001  -3.766934e-001  -3.920422e-001  -4.030745e-001  -4.096696e-001  -4.117572e-001  -4.093183e-001  -4.023863e-001  -3.910464e-001  -3.754345e-001  -3.557334e-001  -3.321698e-001  -3.050086e-001  -2.745485e-001  -2.411181e-001  -2.050743e-001  -1.668017e-001  -1.267123e-001  -8.524268e-002  -4.284913e-002  0.000000e+000  0.000000e+000  -4.795836e-002  -9.537464e-002  -1.417293e-001  -1.865146e-001  -2.292397e-001  -2.694365e-001  -3.066645e-001  -3.405150e-001  -3.706164e-001  -3.966376e-001  -4.182919e-001  -4.353407e-001  -4.475963e-001  -4.549246e-001  -4.572474e-001  -4.545436e-001  -4.468503e-001  -4.342623e-001  -4.169300e-001  -3.950566e-001  -3.688935e-001  -3.387347e-001  -3.049118e-001  -2.677895e-001  -2.277638e-001  -1.852613e-001  -1.407392e-001  -9.468197e-002  -4.759567e-002  0.000000e+000  0.000000e+000  -5.218968e-002  -1.037925e-001  -1.542427e-001  -2.029870e-001  -2.494910e-001  -2.932447e-001  -3.337682e-001  -3.706164e-001  -4.033845e-001  -4.317117e-001  -4.552860e-001  -4.738474e-001  -4.871916e-001  -4.951725e-001  -4.977050e-001  -4.947663e-001  -4.863967e-001  -4.726991e-001  -4.538374e-001  -4.300327e-001  -4.015583e-001  -3.687343e-001  -3.319211e-001  -2.915156e-001  -2.479485e-001  -2.016838e-001  -1.532188e-001  -1.030804e-001  -5.181900e-002  0.000000e+000  0.000000e+000  -5.584621e-002  -1.110673e-001  -1.650573e-001  -2.172240e-001  -2.669950e-001  -3.138241e-001  -3.571971e-001  -3.966376e-001  -4.317117e-001  -4.620333e-001  -4.872682e-001  -5.071379e-001  -5.214237e-001  -5.299694e-001  -5.326837e-001  -5.295423e-001  -5.205884e-001  -5.059321e-001  -4.857487e-001  -4.602748e-001  -4.298028e-001  -3.946749e-001  -3.552769e-001  -3.120331e-001  -2.654043e-001  -2.158868e-001  -1.640123e-001  -1.103445e-001  -5.547216e-002  0.000000e+000  0.000000e+000  -5.888777e-002  -1.171190e-001  -1.740545e-001  -2.290693e-001  -2.815593e-001  -3.309482e-001  -3.766934e-001  -4.182919e-001  -4.552860e-001  -4.872682e-001  -5.138856e-001  -5.348448e-001  -5.499148e-001  -5.589310e-001  -5.617971e-001  -5.584875e-001  -5.490477e-001  -5.335939e-001  -5.123110e-001  -4.854483e-001  -4.533142e-001  -4.162694e-001  -3.747204e-001  -3.291147e-001  -2.799377e-001  -2.277127e-001  -1.730000e-001  -1.163938e-001  -5.851458e-002  0.000000e+000  0.000000e+000  -6.128090e-002  -1.218812e-001  -1.811353e-001  -2.383924e-001  -2.930235e-001  -3.444285e-001  -3.920422e-001  -4.353407e-001  -4.738474e-001  -5.071379e-001  -5.348448e-001  -5.566624e-001  -5.723505e-001  -5.817377e-001  -5.847237e-001  -5.812821e-001  -5.714602e-001  -5.553790e-001  -5.332308e-001  -5.052751e-001  -4.718327e-001  -4.332789e-001  -3.900366e-001  -3.425712e-001  -2.913878e-001  -2.370306e-001  -1.800823e-001  -1.211611e-001  -6.091254e-002  0.000000e+000  0.000000e+000  -6.299929e-002  -1.253013e-001  -1.862216e-001  -2.450907e-001  -3.012615e-001  -3.541166e-001  -4.030745e-001  -4.475963e-001  -4.871916e-001  -5.214237e-001  -5.499148e-001  -5.723505e-001  -5.884838e-001  -5.981383e-001  -6.012112e-001  -5.976752e-001  -5.875791e-001  -5.710474e-001  -5.482777e-001  -5.195367e-001  -4.851543e-001  -4.455161e-001  -4.010568e-001  -3.522545e-001  -2.996284e-001  -2.437376e-001  -1.851811e-001  -1.245939e-001  -6.263960e-002  0.000000e+000  0.000000e+000  -6.402415e-002  -1.273421e-001  -1.892580e-001  -2.490909e-001  -3.061831e-001  -3.599064e-001  -4.096696e-001  -4.549246e-001  -4.951725e-001  -5.299694e-001  -5.589310e-001  -5.817377e-001  -5.981383e-001  -6.079537e-001  -6.110795e-001  -6.074880e-001  -5.972287e-001  -5.804283e-001  -5.572876e-001  -5.280777e-001  -4.931338e-001  -4.528476e-001  -4.076607e-001  -3.580590e-001  -3.045697e-001  -2.477608e-001  -1.882407e-001  -1.266547e-001  -6.367690e-002  0.000000e+000  0.000000e+000  -6.434451e-002  -1.279817e-001  -1.902119e-001  -2.503504e-001  -3.077357e-001  -3.617362e-001  -4.117572e-001  -4.572474e-001  -4.977050e-001  -5.326837e-001  -5.617971e-001  -5.847237e-001  -6.012112e-001  -6.110795e-001  -6.142237e-001  -6.106160e-001  -6.003064e-001  -5.834221e-001  -5.601651e-001  -5.308077e-001  -4.956867e-001  -4.551958e-001  -4.097786e-001  -3.599232e-001  -3.061593e-001  -2.490575e-001  -1.892289e-001  -1.273218e-001  -6.401348e-002  0.000000e+000  0.000000e+000  -6.395751e-002  -1.272144e-001  -1.890747e-001  -2.488577e-001  -3.059054e-001  -3.595894e-001  -4.093183e-001  -4.545436e-001  -4.947663e-001  -5.295423e-001  -5.584875e-001  -5.812821e-001  -5.976752e-001  -6.074880e-001  -6.106160e-001  -6.070318e-001  -5.967852e-001  -5.800027e-001  -5.568849e-001  -5.277028e-001  -4.927908e-001  -4.525403e-001  -4.073921e-001  -3.578311e-001  -3.043835e-001  -2.476164e-001  -1.881370e-001  -1.265893e-001  -6.364641e-002  0.000000e+000  0.000000e+000  -6.286844e-002  -1.250506e-001  -1.858620e-001  -2.446332e-001  -3.007170e-001  -3.534953e-001  -4.023863e-001  -4.468503e-001  -4.863967e-001  -5.205884e-001  -5.490477e-001  -5.714602e-001  -5.875791e-001  -5.972287e-001  -6.003064e-001  -5.967852e-001  -5.867142e-001  -5.702177e-001  -5.474930e-001  -5.188065e-001  -4.844868e-001  -4.449184e-001  -4.005346e-001  -3.518119e-001  -2.992673e-001  -2.434579e-001  -1.849804e-001  -1.244676e-001  -6.258083e-002  0.000000e+000  0.000000e+000  -6.109070e-002  -1.215169e-001  -1.806133e-001  -2.377290e-001  -2.922346e-001  -3.435290e-001  -3.910464e-001  -4.342623e-001  -4.726991e-001  -5.059321e-001  -5.335939e-001  -5.553790e-001  -5.710474e-001  -5.804283e-001  -5.834221e-001  -5.800027e-001  -5.702177e-001  -5.541880e-001  -5.321055e-001  -5.042287e-001  -4.708772e-001  -4.324244e-001  -3.892911e-001  -3.419401e-001  -2.908739e-001  -2.366334e-001  -1.797981e-001  -1.209828e-001  -6.082990e-002  0.000000e+000  0.000000e+000  -5.864563e-002  -1.166558e-001  -1.733916e-001  -2.282277e-001  -2.805595e-001  -3.298096e-001  -3.754345e-001  -4.169300e-001  -4.538374e-001  -4.857487e-001  -5.123110e-001  -5.332308e-001  -5.482777e-001  -5.572876e-001  -5.601651e-001  -5.568849e-001  -5.474930e-001  -5.321055e-001  -5.109064e-001  -4.841440e-001  -4.521249e-001  -4.152076e-001  -3.737959e-001  -3.283339e-001  -2.793037e-001  -2.272243e-001  -1.726520e-001  -1.161765e-001  -5.841455e-002  0.000000e+000  0.000000e+000  -5.556196e-002  -1.105244e-001  -1.642816e-001  -2.162408e-001  -2.658288e-001  -3.124982e-001  -3.557334e-001  -3.950566e-001  -4.300327e-001  -4.602748e-001  -4.854483e-001  -5.052751e-001  -5.195367e-001  -5.280777e-001  -5.308077e-001  -5.277028e-001  -5.188065e-001  -5.042287e-001  -4.841440e-001  -4.587875e-001  -4.284496e-001  -3.934697e-001  -3.542304e-001  -3.111523e-001  -2.646918e-001  -2.153407e-001  -1.636256e-001  -1.101050e-001  -5.536294e-002  0.000000e+000  0.000000e+000  -5.187522e-002  -1.031932e-001  -1.533882e-001  -2.019063e-001  -2.482120e-001  -2.917938e-001  -3.321698e-001  -3.688935e-001  -4.015583e-001  -4.298028e-001  -4.533142e-001  -4.718327e-001  -4.851543e-001  -4.931338e-001  -4.956867e-001  -4.927908e-001  -4.844868e-001  -4.708772e-001  -4.521249e-001  -4.284496e-001  -4.001221e-001  -3.674594e-001  -3.308184e-001  -2.905918e-001  -2.472055e-001  -2.011184e-001  -1.528219e-001  -1.028374e-001  -5.170995e-002  0.000000e+000  0.000000e+000  -4.762695e-002  -9.474498e-002  -1.408342e-001  -1.853858e-001  -2.279075e-001  -2.679294e-001  -3.050086e-001  -3.387347e-001  -3.687343e-001  -3.946749e-001  -4.162694e-001  -4.332789e-001  -4.455161e-001  -4.528476e-001  -4.551958e-001  -4.525403e-001  -4.449184e-001  -4.324244e-001  -4.152076e-001  -3.934697e-001  -3.674594e-001  -3.374674e-001  -3.038216e-001  -2.668821e-001  -2.270399e-001  -1.847161e-001  -1.403617e-001  -9.445504e-002  -4.749633e-002  0.000000e+000  0.000000e+000  -4.286392e-002  -8.527266e-002  -1.267578e-001  -1.668609e-001  -2.051387e-001  -2.411675e-001  -2.745485e-001  -3.049118e-001  -3.319211e-001  -3.552769e-001  -3.747204e-001  -3.900366e-001  -4.010568e-001  -4.076607e-001  -4.097786e-001  -4.073921e-001  -4.005346e-001  -3.892911e-001  -3.737959e-001  -3.542304e-001  -3.308184e-001  -3.038216e-001  -2.735347e-001  -2.402819e-001  -2.044150e-001  -1.663127e-001  -1.263807e-001  -8.504916e-002  -4.276802e-002  0.000000e+000  0.000000e+000  -3.763767e-002  -7.487873e-002  -1.113113e-001  -1.465321e-001  -1.801515e-001  -2.117970e-001  -2.411181e-001  -2.677895e-001  -2.915156e-001  -3.120331e-001  -3.291147e-001  -3.425712e-001  -3.522545e-001  -3.580590e-001  -3.599232e-001  -3.578311e-001  -3.518119e-001  -3.419401e-001  -3.283339e-001  -3.111523e-001  -2.905918e-001  -2.668821e-001  -2.402819e-001  -2.110759e-001  -1.795728e-001  -1.461049e-001  -1.110283e-001  -7.472029e-002  -3.757555e-002  0.000000e+000  0.000000e+000  -3.200417e-002  -6.367452e-002  -9.465989e-002  -1.246168e-001  -1.532131e-001  -1.801318e-001  -2.050743e-001  -2.277638e-001  -2.479485e-001  -2.654043e-001  -2.799377e-001  -2.913878e-001  -2.996284e-001  -3.045697e-001  -3.061593e-001  -3.043835e-001  -2.992673e-001  -2.908739e-001  -2.793037e-001  -2.646918e-001  -2.472055e-001  -2.270399e-001  -2.044150e-001  -1.795728e-001  -1.527756e-001  -1.243061e-001  -9.446647e-002  -6.357731e-002  -3.197364e-002  0.000000e+000  0.000000e+000  -2.602395e-002  -5.178023e-002  -7.698213e-002  -1.013495e-001  -1.246115e-001  -1.465100e-001  -1.668017e-001  -1.852613e-001  -2.016838e-001  -2.158868e-001  -2.277127e-001  -2.370306e-001  -2.437376e-001  -2.477608e-001  -2.490575e-001  -2.476164e-001  -2.434579e-001  -2.366334e-001  -2.272243e-001  -2.153407e-001  -2.011184e-001  -1.847161e-001  -1.663127e-001  -1.461049e-001  -1.243061e-001  -1.011457e-001  -7.686942e-002  -5.173728e-002  -2.602108e-002  0.000000e+000  0.000000e+000  -1.976204e-002  -3.932497e-002  -5.846943e-002  -7.698161e-002  -9.465527e-002  -1.112938e-001  -1.267123e-001  -1.407392e-001  -1.532188e-001  -1.640123e-001  -1.730000e-001  -1.800823e-001  -1.851811e-001  -1.882407e-001  -1.892289e-001  -1.881370e-001  -1.849804e-001  -1.797981e-001  -1.726520e-001  -1.636256e-001  -1.528219e-001  -1.403617e-001  -1.263807e-001  -1.110283e-001  -9.446647e-002  -7.686942e-002  -5.842331e-002  -3.932518e-002  -1.978054e-002  0.000000e+000  0.000000e+000  -1.328782e-002  -2.644610e-002  -3.932516e-002  -5.178013e-002  -6.367174e-002  -7.486746e-002  -8.524268e-002  -9.468197e-002  -1.030804e-001  -1.103445e-001  -1.163938e-001  -1.211611e-001  -1.245939e-001  -1.266547e-001  -1.273218e-001  -1.265893e-001  -1.244676e-001  -1.209828e-001  -1.161765e-001  -1.101050e-001  -1.028374e-001  -9.445504e-002  -8.504916e-002  -7.472029e-002  -6.357731e-002  -5.173728e-002  -3.932518e-002  -2.647305e-002  -1.331812e-002  0.000000e+000  0.000000e+000  -6.674591e-003  -1.328789e-002  -1.976223e-002  -2.602400e-002  -3.200290e-002  -3.763219e-002  -4.284913e-002  -4.759567e-002  -5.181900e-002  -5.547216e-002  -5.851458e-002  -6.091254e-002  -6.263960e-002  -6.367690e-002  -6.401348e-002  -6.364641e-002  -6.258083e-002  -6.082990e-002  -5.841455e-002  -5.536294e-002  -5.170995e-002  -4.749633e-002  -4.276802e-002  -3.757555e-002  -3.197364e-002  -2.602108e-002  -1.978054e-002  -1.331812e-002  -6.702021e-003  0.000000e+000  0.000000e+000  0.000000e+000  0.000000e+000  0.000000e+000  0.000000e+000  0.000000e+000  0.000000e+000  0.000000e+000  0.000000e+000  0.000000e+000  0.000000e+000  0.000000e+000  0.000000e+000  0.000000e+000  0.000000e+000  0.000000e+000  0.000000e+000  0.000000e+000  0.000000e+000  0.000000e+000  0.000000e+000  0.000000e+000  0.000000e+000  0.000000e+000  0.000000e+000  0.000000e+000  0.000000e+000  0.000000e+000  0.000000e+000  0.000000e+000  0.000000e+000  </DataArray> 
</PointData> 
</Piece>
</UnstructuredGrid>
</VTKFile>